# vtk DataFile Version 2.0
barra, Created by Gmsh 4.13.0 
ASCII
DATASET UNSTRUCTURED_GRID
POINTS 44 double
0 0 0
0 1 0
0 1 1
0 0 1
10 0 0
10 1 0
10 1 1
10 0 1
0.9999999999991888 0 0
1.999999999996824 0 0
2.999999999993903 0 0
3.999999999991017 0 0
4.999999999992399 0 0
5.99999999999392 0 0
6.999999999995438 0 0
7.99999999999696 0 0
8.999999999998479 0 0
0.9999999999991888 1 0
1.999999999996824 1 0
2.999999999993903 1 0
3.999999999991017 1 0
4.999999999992399 1 0
5.99999999999392 1 0
6.999999999995438 1 0
7.99999999999696 1 0
8.999999999998479 1 0
0.9999999999991888 1 1
1.999999999996824 1 1
2.999999999993903 1 1
3.999999999991017 1 1
4.999999999992399 1 1
5.99999999999392 1 1
6.999999999995438 1 1
7.99999999999696 1 1
8.999999999998479 1 1
0.9999999999991888 0 1
1.999999999996824 0 1
2.999999999993903 0 1
3.999999999991017 0 1
4.999999999992399 0 1
5.99999999999392 0 1
6.999999999995438 0 1
7.99999999999696 0 1
8.999999999998479 0 1

CELLS 42 210
4 3 2 1 0
4 4 5 6 7
4 0 1 17 8
4 8 17 18 9
4 9 18 19 10
4 10 19 20 11
4 11 20 21 12
4 12 21 22 13
4 13 22 23 14
4 14 23 24 15
4 15 24 25 16
4 16 25 5 4
4 1 2 26 17
4 17 26 27 18
4 18 27 28 19
4 19 28 29 20
4 20 29 30 21
4 21 30 31 22
4 22 31 32 23
4 23 32 33 24
4 24 33 34 25
4 25 34 6 5
4 2 3 35 26
4 26 35 36 27
4 27 36 37 28
4 28 37 38 29
4 29 38 39 30
4 30 39 40 31
4 31 40 41 32
4 32 41 42 33
4 33 42 43 34
4 34 43 7 6
4 3 0 8 35
4 35 8 9 36
4 36 9 10 37
4 37 10 11 38
4 38 11 12 39
4 39 12 13 40
4 40 13 14 41
4 41 14 15 42
4 42 15 16 43
4 43 16 4 7

CELL_TYPES 42
9
9
9
9
9
9
9
9
9
9
9
9
9
9
9
9
9
9
9
9
9
9
9
9
9
9
9
9
9
9
9
9
9
9
9
9
9
9
9
9
9
9

CELL_DATA 42
SCALARS CellEntityIds int 1
LOOKUP_TABLE default
1
3
2
2
2
2
2
2
2
2
2
2
2
2
2
2
2
2
2
2
2
2
2
2
2
2
2
2
2
2
2
2
2
2
2
2
2
2
2
2
2
2
