# vtk DataFile Version 2.0
bar, Created by Gmsh 4.13.0 
ASCII
DATASET UNSTRUCTURED_GRID
POINTS 20 double
0 0 0
0 1 0
0 1 1
0 0 1
5 0 0
5 1 0
5 1 1
5 0 1
10 0 0
10 1 0
10 1 1
10 0 1
2.499999999996199 0 0
2.499999999996199 1 0
2.499999999996199 1 1
2.499999999996199 0 1
7.500000000000002 0 0
7.500000000000002 1 0
7.500000000000002 1 1
7.500000000000002 0 1

CELLS 19 95
4 3 2 1 0
4 4 5 6 7
4 0 1 13 12
4 12 13 5 4
4 1 2 14 13
4 13 14 6 5
4 2 3 15 14
4 14 15 7 6
4 3 0 12 15
4 15 12 4 7
4 8 9 10 11
4 4 5 17 16
4 16 17 9 8
4 5 6 18 17
4 17 18 10 9
4 6 7 19 18
4 18 19 11 10
4 7 4 16 19
4 19 16 8 11

CELL_TYPES 19
9
9
9
9
9
9
9
9
9
9
9
9
9
9
9
9
9
9
9

CELL_DATA 19
SCALARS CellEntityIds int 1
LOOKUP_TABLE default
1
5
2
2
2
2
2
2
2
2
4
3
3
3
3
3
3
3
3
